50
	Energy: -194375.0102016
C         -6.46355        1.03774       -1.41673
S         -4.95828        1.90858       -1.39789
C         -6.30527       -0.13706       -0.77109
S         -7.30882       -1.51959       -0.38223
O         -7.65510       -2.23434       -1.58856
O         -8.36155       -1.14522        0.53041
C         -6.00746       -2.35013        0.47301
C         -4.86562       -1.65263        0.46791
C         -4.97255       -0.36637       -0.24764
C         -4.10491        0.66056       -0.51337
C         -2.71975        0.80508       -0.20578
S         -1.66688       -0.58220       -0.47088
C         -1.97536        1.83756        0.25642
S         -2.25614        3.49488        0.75677
O         -3.05326        3.54671        1.95593
O         -2.66618        4.27476       -0.38867
C         -0.55749        3.77922        1.13513
C          0.20066        2.69843        0.92038
C         -0.56381        1.54381        0.40790
C         -0.22866        0.26286        0.06227
C          1.03069       -0.40765        0.06897
S          2.41896        0.40279       -0.64710
C          1.41746       -1.62312        0.52319
S          0.67035       -2.97486        1.34919
O         -0.30596       -3.59028        0.47824
O          0.26983       -2.61321        2.68547
C          2.16370       -3.91377        1.38639
C          3.18885       -3.25922        0.82952
C          2.81869       -1.92925        0.30847
C          3.51021       -0.92727       -0.31286
C          4.88027       -0.82372       -0.70105
S          5.59329       -2.09742       -1.69949
C          5.81566        0.12388       -0.48312
S          5.93015        1.64074        0.38606
O          5.86332        1.41758        1.81001
O          5.02759        2.60421       -0.20470
C          7.59380        1.92898       -0.11268
C          8.07730        0.93476       -0.86648
C          7.10225       -0.14430       -1.11337
C          7.14665       -1.31327       -1.80156
H         -7.34806        1.44294       -1.89092
H         -6.16242       -3.31517        0.93657
H         -3.92836       -1.95238        0.93280
H         -0.21327        4.73609        1.50563
H          1.27327        2.62096        1.08952
H          2.19819       -4.89883        1.83161
H          4.21169       -3.61556        0.74409
H          8.12578        2.82060        0.18962
H          9.07628        0.87298       -1.28776
H          7.96472       -1.75067       -2.35021
