46
	Energy: -164621.9314044
C          7.16697       -0.31495        0.34292
S          5.83595       -0.92564        1.28815
C          6.66852        0.31478       -0.74982
N          7.12849        1.01004       -1.89239
C          6.02650        1.41136       -2.67345
S          6.09713        2.24026       -4.08180
N          4.84762        0.97805       -2.02886
C          5.18673        0.29684       -0.84266
C          4.58033       -0.35318        0.19343
C          3.21559       -0.59368        0.48792
S          2.02040        0.67464        0.22496
C          2.57149       -1.68871        0.98585
N          2.86785       -3.00133        1.41057
C          1.68177       -3.63580        1.83350
S          1.55991       -5.16193        2.40561
N          0.61576       -2.72290        1.67833
C          1.11063       -1.50909        1.15947
C          0.65033       -0.27834        0.79069
C         -0.65058        0.28186        0.78971
S         -2.02045       -0.67267        0.22615
C         -1.11104        1.51357        1.15511
N         -0.61637        2.72879        1.67083
C         -1.68245        3.64208        1.82317
S         -1.56076        5.16978        2.39117
N         -2.86838        3.00643        1.40164
C         -2.57186        1.69266        0.98058
C         -3.21577        0.59629        0.48535
C         -4.58041        0.35496        0.19112
S         -5.83654        0.93368        1.28198
C         -5.18642       -0.30000       -0.84208
N         -4.84682       -0.98729       -2.02465
C         -6.02548       -1.42317       -2.66792
S         -6.09557       -2.25900       -4.07220
N         -7.12780       -1.01752       -1.88957
C         -6.66829       -0.31681       -0.75017
C         -7.16719        0.31862        0.33905
H          8.18931       -0.45417        0.65003
H          8.09544        1.19719       -2.12095
H          3.91041        1.11214       -2.38754
H          3.78183       -3.43642        1.38636
H         -0.34706       -2.90871        1.93157
H          0.34642        2.91543        1.92357
H         -3.78235        3.44144        1.37592
H         -3.90945       -1.12348       -2.38210
H         -8.09470       -1.20507       -2.11804
H         -8.18966        0.45986        0.64481
