38
	Energy:  -97882.3527007
C          7.73897       -0.13572       -0.09055
N          7.01759       -1.07336       -0.76068
C          5.66570       -0.99563       -0.71785
C          7.13802        0.90129        0.64088
C          5.74384        0.97859        0.67803
C          4.98263        0.02548       -0.01556
C          3.50686        0.07052       -0.00959
N          2.86057       -1.13473        0.00700
C          1.50802       -1.14420        0.02497
C          2.80115        1.29076       -0.03157
C          1.40654        1.26826       -0.01202
C          0.73225        0.03632        0.03310
C         -0.74172       -0.02389        0.06869
N         -1.41057        0.95582       -0.61377
C         -2.76208        0.93748       -0.61671
C         -1.42479       -1.03278        0.77720
C         -2.82061       -1.04459        0.76311
C         -3.51609       -0.05907        0.04853
C         -4.99151       -0.03772       -0.00182
N         -5.58135        1.19548       -0.00274
C         -6.93489        1.26139       -0.04297
C         -5.74749       -1.22682       -0.05529
C         -7.14124       -1.13700       -0.09602
C         -7.75255        0.11909       -0.08611
H          8.82906       -0.23589       -0.15054
H          5.11134       -1.77684       -1.25831
H          7.74834        1.62823        1.17120
H          5.25461        1.76797        1.24946
H          1.03868       -2.13657        0.02457
H          3.33446        2.23787       -0.07968
H          0.83503        2.20131       -0.03906
H         -3.26148        1.74969       -1.16677
H         -0.87560       -1.78354        1.34138
H         -3.36313       -1.81256        1.31665
H         -7.36444        2.27088       -0.03928
H         -5.25532       -2.19587       -0.07719
H         -7.74652       -2.04310       -0.13749
H         -8.83476        0.21542       -0.11420
