58
	Energy: -186781.1370339
C         14.85176        0.19373       -0.00268
S         13.74006       -0.73826        0.99751
C         14.21259        0.94700       -0.93700
C         12.78775        0.77562       -0.85342
C         12.36203       -0.12868        0.17011
N         11.66937        1.27409       -1.52897
H         11.67029        1.92441       -2.28876
C         10.54577        0.68799       -0.93468
C         10.96672       -0.18345        0.11976
S          9.59043       -0.90237        0.85318
C          9.12751        0.74974       -1.12952
C          8.47420       -0.05829       -0.24044
C          7.07601       -0.29648       -0.07787
S          5.96407        1.05042       -0.40257
C          6.41972       -1.43213        0.30858
C          5.00251       -1.22185        0.34064
C          4.58556        0.09656       -0.02976
N          3.87809       -1.99616        0.64588
H          3.87338       -2.95383        0.93544
C          2.76134       -1.17202        0.46937
C          3.19125        0.12762        0.05046
S          1.82262        1.14126       -0.16936
C          1.34244       -1.31657        0.60827
C          0.69780       -0.15043        0.30092
C         -0.69781        0.15050        0.30091
S         -1.82262       -1.14117       -0.16944
C         -1.34246        1.31664        0.60826
C         -2.76136        1.17210        0.46932
C         -3.19125       -0.12753        0.05037
N         -3.87811        1.99621        0.64587
H         -3.87341        2.95390        0.93538
C         -5.00252        1.22191        0.34057
C         -4.58556       -0.09648       -0.02988
S         -5.96406       -1.05035       -0.40269
C         -6.41974        1.43218        0.30851
C         -7.07602        0.29652       -0.07795
C         -8.47421        0.05833       -0.24052
S         -9.59043        0.90230        0.85320
C         -9.12752       -0.74964       -1.12966
C        -10.54578       -0.68793       -0.93479
C        -10.96672        0.18342        0.11974
N        -11.66937       -1.27406       -1.52904
H        -11.67031       -1.92421       -2.28897
C        -12.78775       -0.77565       -0.85344
C        -12.36203        0.12859        0.17015
S        -13.74004        0.73802        0.99767
C        -14.21258       -0.94711       -0.93695
C        -14.85175       -0.19395       -0.00254
H         15.91153        0.11789        0.17330
H         14.68661        1.59624       -1.65790
H          8.65856        1.35455       -1.89291
H          6.88573       -2.37677        0.55175
H          0.86699       -2.23379        0.92662
H         -0.86702        2.23385        0.92666
H         -6.88577        2.37680        0.55171
H         -8.65856       -1.35438       -1.89309
H        -14.68661       -1.59631       -1.65787
H        -15.91151       -0.11818        0.17350
