42
	Energy:  -92335.6480530
C          7.82981       -0.00002       -0.00006
C          7.12934        1.21061       -0.00603
C          5.73219        1.21425       -0.00428
C          7.12932       -1.21062        0.00590
C          5.73217       -1.21424        0.00415
C          5.02728        0.00002       -0.00006
C          3.54768        0.00000       -0.00003
C          2.84131       -0.65943       -1.01855
C          1.44585       -0.65942       -1.01856
C          2.84139        0.65943        1.01856
C          1.44593        0.65938        1.01870
C          0.73951       -0.00002        0.00011
C         -0.73954       -0.00003        0.00012
C         -1.44590        1.21340        0.00590
C         -2.84136        1.21340        0.00233
C         -1.44595       -1.21342       -0.00566
C         -2.84141       -1.21337       -0.00214
C         -3.54769        0.00003        0.00007
C         -5.02729        0.00003        0.00001
C         -5.73210        0.65800       -1.02058
C         -7.12924        0.65455       -1.01856
C         -5.73221       -0.65796        1.02052
C         -7.12936       -0.65455        1.01832
C         -7.82977       -0.00001       -0.00017
H          8.91786       -0.00002       -0.00006
H          7.67355        2.15361       -0.01251
H          5.18802        2.15724       -0.01320
H          7.67350       -2.15364        0.01238
H          5.18798       -2.15721        0.01305
H          3.38576       -1.16616       -1.81459
H          0.90157       -1.16593       -1.81481
H          3.38590        1.16618        1.81455
H          0.90171        1.16587        1.81502
H         -0.90165        2.15708        0.00657
H         -3.38585        2.15700        0.00751
H         -0.90174       -2.15713       -0.00628
H         -3.38593       -2.15695       -0.00731
H         -5.18782        1.16434       -1.81612
H         -7.67339        1.16290       -1.81288
H         -5.18802       -1.16426        1.81615
H         -7.67360       -1.16290        1.81257
H         -8.91782       -0.00003       -0.00024
