62
	Energy: -180834.7062585
C        -14.85347       -0.27783       -0.12489
S        -13.71647        0.91002        0.46779
C        -14.21934       -1.32913       -0.72875
C        -12.80129       -1.17392       -0.71291
C        -12.37397        0.00669       -0.09007
C        -11.61884       -1.97233       -1.20535
C        -10.47050       -1.08919       -0.77949
C        -10.94784        0.05916       -0.13024
S         -9.65286        1.06331        0.35541
C         -9.05374       -1.14489       -0.88349
C         -8.45520       -0.04308       -0.31513
C         -7.07599        0.29393       -0.19634
S         -5.89964       -1.01195       -0.05713
C         -6.46341        1.52626       -0.15890
C         -5.05305        1.41138       -0.02305
C         -4.59436        0.08698        0.04243
C         -3.89632        2.37733        0.06576
C         -2.72901        1.42811        0.18918
C         -3.17320        0.09720        0.17177
S         -1.85608       -0.98307        0.31073
C         -1.32008        1.56310        0.32032
C         -0.69414        0.33954        0.40213
C          0.68866        0.02226        0.53265
S          1.87414        1.11759       -0.17638
C          1.29913       -1.05246        1.13917
C          2.71504       -0.98478        1.03338
C          3.18004        0.14568        0.34438
C          3.87247       -1.83972        1.48975
C          5.04711       -1.04649        0.97020
C          4.60609        0.10792        0.30569
S          5.93165        1.00987       -0.28652
C          6.46114       -1.18931        0.99951
C          7.09412       -0.14777        0.35930
C          8.48269        0.09607        0.15364
S          9.56732       -1.28597        0.00664
C          9.16663        1.28476        0.03278
C         10.55771        1.07553       -0.17262
C         10.92988       -0.27665       -0.20725
C         11.76524        1.96187       -0.36307
C         12.86243        0.93565       -0.50869
C         12.34014       -0.36141       -0.41267
S         13.58603       -1.52319       -0.57853
C         14.27347        0.96815       -0.71630
C         14.80850       -0.28968       -0.77608
H        -15.91125       -0.13148        0.00619
H        -14.71388       -2.18287       -1.17017
H        -11.64428       -2.12363       -2.30143
H        -11.56871       -2.97496       -0.73937
H         -8.52691       -1.95765       -1.36489
H         -6.97579        2.47590       -0.23384
H         -3.98110        3.05067        0.94031
H         -3.81895        3.01953       -0.83257
H         -0.81810        2.52036        0.36065
H          0.78098       -1.85370        1.64862
H          3.83390       -2.85875        1.05902
H          3.89933       -1.95303        2.59059
H          6.96283       -2.01761        1.48138
H          8.71857        2.26720        0.09516
H         11.93171        2.63144        0.50229
H         11.67320        2.60477       -1.25925
H         14.83403        1.88730       -0.81232
H         15.83861       -0.56305       -0.92323
