58
	Energy: -206701.7678579
C         14.67608       -0.16194       -1.45573
S         13.41893       -1.35756       -1.57205
C         14.20288        1.01813       -0.93694
C         12.81879        0.93858       -0.63831
C         12.24664       -0.30784       -0.93368
C         11.76489        1.85699       -0.07273
O         11.87489        2.99449        0.29103
C         10.52785        0.98834       -0.07932
C         10.84835       -0.27702       -0.59343
S          9.47702       -1.27720       -0.61540
C          9.17355        1.13426        0.29950
C          8.45612       -0.02322        0.07042
C          7.07911       -0.30981        0.29244
S          5.89437        0.94254       -0.04159
C          6.47025       -1.46693        0.73745
C          5.06572       -1.32139        0.80200
C          4.59975       -0.05641        0.41153
C          3.89520       -2.18981        1.19813
O          3.90129       -3.32688        1.57826
C          2.71457       -1.27117        0.99095
C          3.16577       -0.02582        0.52695
S          1.85918        1.02921        0.28332
C          1.31276       -1.35647        1.15173
C          0.69071       -0.17284        0.80583
C         -0.69069        0.17288        0.80578
S         -1.85918       -1.02926        0.28354
C         -1.31273        1.35660        1.15139
C         -2.71453        1.27132        0.99057
C         -3.16574        0.02586        0.52685
C         -3.89516        2.19004        1.19745
O         -3.90123        3.32721        1.57729
C         -5.06567        1.32153        0.80149
C         -4.59972        0.05645        0.41136
S         -5.89435       -0.94257       -0.04158
C         -6.47020        1.46710        0.73686
C         -7.07907        0.30988        0.29214
C         -8.45609        0.02324        0.07021
S         -9.47719        1.27732       -0.61515
C         -9.17339       -1.13437        0.29906
C        -10.52774       -0.98847       -0.07956
C        -10.84842        0.27700       -0.59330
C        -11.76472       -1.85722       -0.07307
O        -11.87457       -2.99483        0.29040
C        -12.81875       -0.93876       -0.63831
C        -12.24674        0.30778       -0.93341
S        -13.41920        1.35757       -1.57138
C        -14.20285       -1.01837       -0.93685
C        -14.67621        0.16179       -1.45528
H         15.68155       -0.38523       -1.76943
H         14.79289        1.91141       -0.76742
H          8.77373        2.04711        0.72659
H          6.98493       -2.37855        1.01961
H          0.81138       -2.24645        1.51534
H         -0.81134        2.24667        1.51479
H         -6.98487        2.37880        1.01878
H         -8.77347       -2.04730        0.72587
H        -14.79276       -1.91175       -0.76751
H        -15.68173        0.38506       -1.76884
