34
	Energy: -104421.9846216
C          6.84484       -0.11731       -0.00135
C          5.63518        0.79304       -0.00026
O          5.60892        1.99161        0.00057
C          6.41944       -1.39321       -0.00197
C          4.92790       -1.43288       -0.00135
C          4.43866       -0.17065       -0.00036
C          3.08199        0.28171        0.00045
C          1.89075       -0.67667       -0.00002
O          1.90712       -1.87590       -0.00069
C          2.59978        1.54896        0.00166
C          1.11646        1.52760        0.00213
C          0.67102        0.24691        0.00123
C         -0.67100       -0.24689        0.00131
C         -1.89074        0.67668        0.00025
O         -1.90711        1.87592       -0.00068
C         -1.11645       -1.52759        0.00227
C         -2.59976       -1.54895        0.00163
C         -3.08198       -0.28169        0.00046
C         -4.43867        0.17064       -0.00046
C         -5.63519       -0.79305       -0.00040
O         -5.60891       -1.99162        0.00052
C         -4.92793        1.43288       -0.00158
C         -6.41946        1.39320       -0.00189
C         -6.84486        0.11729       -0.00120
H          7.84281        0.28107       -0.00154
H          7.01007       -2.29594       -0.00279
H          4.36495       -2.35647       -0.00169
H          3.17580        2.46688        0.00227
H          0.51535        2.42875        0.00300
H         -0.51531       -2.42872        0.00310
H         -3.17581       -2.46685        0.00214
H         -4.36495        2.35646       -0.00189
H         -7.01012        2.29591       -0.00270
H         -7.84283       -0.28109       -0.00118
