46
	Energy: -154144.8467301
C         -7.93444       -1.00488       -0.78010
C         -7.38369        0.31972       -0.60189
N         -8.04777        1.46630       -0.54246
S         -6.91989        2.72046       -0.32956
N         -5.52550        1.74716       -0.32067
C         -5.89708        0.48257       -0.46870
C         -7.09378       -2.06786       -0.81809
C         -5.65981       -1.92084       -0.67848
C         -5.05903       -0.70857       -0.50682
C         -3.59706       -0.56790       -0.36026
C         -2.88013       -1.45924        0.54019
N         -3.38007       -2.43105        1.29234
S         -2.10844       -3.14568        2.16372
N         -0.86187       -2.17569        1.53744
C         -1.39239       -1.30882        0.68475
C         -2.88224        0.37290       -1.04075
C         -1.45180        0.51696       -0.90258
C         -0.70805       -0.27670       -0.08045
C          0.75336       -0.12511        0.05546
C          1.32057        1.20255        0.24052
N          0.67739        2.36131        0.30076
S          1.81560        3.59608        0.55527
N          3.19265        2.60136        0.58517
C          2.80699        1.34495        0.40276
C          1.60366       -1.19032        0.01420
C          3.03516       -1.05050        0.14313
C          3.64249        0.15523        0.33379
C          5.10598        0.28875        0.46945
C          5.97346       -0.40110       -0.47612
N          5.62931       -1.17721       -1.49507
S          7.04889       -1.70212       -2.27181
N          8.15127       -0.90534       -1.25148
C          7.45996       -0.24378       -0.33329
C          5.68062        1.03788        1.45333
C          7.11594        1.17523        1.59048
C          7.98237        0.57019        0.74123
H         -9.01703       -1.09492       -0.87620
H         -7.47657       -3.08200       -0.95008
H         -5.06414       -2.83852       -0.70061
H         -3.38549        1.07477       -1.71451
H         -0.97799        1.31624       -1.48264
H          1.21685       -2.20691       -0.11207
H          3.62929       -1.96778        0.07238
H          5.05966        1.57959        2.17368
H          7.47699        1.79798        2.41171
H          9.06561        0.66589        0.82374
