46
	Energy: -157623.6315858
C         -6.42563        0.83717       -2.50610
S         -4.82106        1.48841       -2.39633
C         -6.63298       -0.07183       -1.51246
S         -8.16228       -0.89272       -1.37188
C         -8.01259       -1.97664       -0.01296
C         -6.96456       -2.14158        0.78473
S         -5.42319       -1.32691        0.72082
C         -5.49783       -0.25793       -0.64763
C         -4.42208        0.51500       -0.99264
C         -3.11953        0.61804       -0.41264
S         -1.85783       -0.47802       -0.93616
C         -2.63074        1.47620        0.53551
S         -3.66415        2.67224        1.26025
C         -2.65377        3.59161        2.34540
C         -1.37073        3.39972        2.62581
S         -0.30572        2.17092        1.99409
C         -1.24190        1.26815        0.83993
C         -0.66989        0.25051        0.12466
C          0.66977       -0.24991        0.12480
S          1.85762        0.47771       -0.93678
C          1.24186       -1.26694        0.84087
S          0.30589       -2.16859        1.99608
C          1.37052       -3.39786        2.62752
C          2.65350       -3.59006        2.34704
S          3.66411       -2.67079        1.26202
C          2.63065       -1.47531        0.53642
C          3.11934       -0.61796       -0.41252
C          4.42185       -0.51546       -0.99271
S          4.82043       -1.48937       -2.39614
C          5.49787        0.25721       -0.64794
S          5.42356        1.32670        0.72012
C          6.96547        2.14033        0.78421
C          8.01344        1.97479       -0.01345
S          8.16250        0.89090       -1.37247
C          6.63291        0.07051       -1.51277
C          6.42520       -0.83867       -2.50618
H         -7.10822        1.15571       -3.27856
H         -8.94145       -2.54663        0.12387
H         -6.97938       -2.85665        1.61907
H         -3.23429        4.40053        2.80972
H         -0.83002        4.04120        3.33519
H          0.82966       -4.03930        3.33682
H          3.23381       -4.39920        2.81124
H          6.98072        2.85532        1.61861
H          8.94266        2.54419        0.12346
H          7.10766       -1.15764       -3.27858
